# vtk DataFile Version 3.0
vtk output
ASCII
DATASET POLYDATA
POINTS 62 float
0.0879806 0.0336056 -0.054375 -0.0879806 -0.0336056 0.054375 0.87 0 0 
0.703845 -0.268845 0.435 0.827419 -0.14134 0.228693 0.703845 0.268845 -0.435 
0.827419 0.14134 -0.228693 0.268845 0.435 -0.703845 0.511373 0.370033 -0.598726 
-0.268845 0.435 -0.703845 0 0.457386 -0.740066 -0.703845 -0.268845 0.435 
-0.268845 -0.435 0.703845 -0.511373 -0.370033 0.598726 0.268845 -0.435 0.703845 
0 -0.457386 0.740066 0.511373 -0.370033 0.598726 -0.87 0 0 
-0.827419 -0.14134 0.228693 -0.703845 0.268845 -0.435 -0.827419 0.14134 -0.228693 
-0.511373 0.370033 -0.598726 0.6525 0 0 0.527884 -0.201634 0.32625 
0.620564 -0.106005 0.17152 0.527884 0.201634 -0.32625 0.620564 0.106005 -0.17152 
0.201634 0.32625 -0.527884 0.38353 0.277525 -0.449044 -0.201634 0.32625 -0.527884 
0 0.343039 -0.555049 -0.527884 -0.201634 0.32625 -0.201634 -0.32625 0.527884 
-0.38353 -0.277525 0.449044 0.201634 -0.32625 0.527884 0 -0.343039 0.555049 
0.38353 -0.277525 0.449044 -0.6525 0 0 -0.620564 -0.106005 0.17152 
-0.527884 0.201634 -0.32625 -0.620564 0.106005 -0.17152 -0.38353 0.277525 -0.449044 
0.435 0 0 0.351923 -0.134422 0.2175 0.351923 0.134422 -0.2175 
0.134422 0.2175 -0.351923 -0.134422 0.2175 -0.351923 -0.351923 -0.134422 0.2175 
-0.134422 -0.2175 0.351923 0.134422 -0.2175 0.351923 -0.435 0 0 
-0.351923 0.134422 -0.2175 0.2175 0 0 0.175961 -0.0672112 0.10875 
0.175961 0.0672112 -0.10875 0.0672112 0.10875 -0.175961 -0.0672112 0.10875 -0.175961 
-0.175961 -0.0672112 0.10875 -0.0672112 -0.10875 0.175961 0.0672112 -0.10875 0.175961 
-0.2175 0 0 -0.175961 0.0672112 -0.10875 
POLYGONS 102 408
3 31 11 18 
3 25 8 5 
3 31 13 11 
3 32 15 12 
3 29 21 9 
3 25 5 6 
3 27 10 7 
3 43 42 24 
3 43 24 23 
3 49 43 36 
3 43 23 36 
3 26 25 6 
3 28 27 8 
3 56 55 0 
3 30 29 10 
3 55 46 45 
3 48 35 32 
3 33 32 13 
3 58 49 48 
3 60 1 57 
3 56 0 1 
3 39 20 19 
3 22 6 2 
3 22 2 4 
3 23 4 3 
3 23 3 16 
3 24 22 4 
3 24 4 23 
3 44 25 26 
3 27 7 8 
3 26 6 22 
3 54 52 0 
3 45 27 28 
3 29 9 10 
3 28 8 25 
3 45 28 44 
3 45 30 27 
3 39 19 21 
3 30 10 27 
3 46 41 29 
3 50 47 38 
3 32 12 13 
3 48 32 33 
3 34 14 15 
3 33 13 31 
3 48 33 47 
3 34 16 14 
3 35 34 15 
3 35 15 32 
3 53 42 43 
3 36 23 16 
3 36 16 34 
3 37 18 17 
3 37 17 20 
3 38 31 18 
3 38 18 37 
3 41 39 21 
3 51 40 39 
3 40 37 20 
3 40 20 39 
3 41 21 29 
3 51 50 40 
3 42 26 22 
3 42 22 24 
3 59 53 43 
3 59 1 0 
3 44 28 25 
3 44 26 42 
3 55 44 54 
3 46 29 30 
3 51 39 41 
3 46 30 45 
3 47 33 31 
3 47 31 38 
3 58 47 57 
3 49 34 35 
3 49 36 34 
3 49 35 48 
3 50 38 37 
3 50 37 40 
3 51 41 46 
3 61 56 1 
3 54 52 42 
3 53 52 42 
3 59 58 1 
3 53 0 52 
3 54 42 44 
3 55 45 44 
3 55 54 0 
3 56 51 46 
3 61 50 51 
3 56 46 55 
3 57 50 47 
3 58 48 47 
3 58 57 1 
3 59 0 53 
3 59 43 49 
3 59 49 58 
3 60 57 50 
3 61 60 50 
3 61 51 56 
3 61 1 60 

POINT_DATA 62
NORMALS normals float
-0.809017 -0.309017 0.500001 0.809017 0.309017 -0.500001 -1 0 0 
-0.809017 0.309017 -0.500001 -0.950975 0.151268 -0.269751 -0.809017 -0.309017 0.500001 
-0.950975 -0.151268 0.269751 -0.309017 -0.500001 0.809017 -0.587735 -0.436466 0.681223 
0.309017 -0.500001 0.809017 0 -0.514509 0.857485 0.809017 0.309017 -0.500001 
0.309017 0.500001 -0.809017 0.587735 0.436466 -0.681223 -0.309017 0.500001 -0.809017 
0 0.514509 -0.857485 -0.587735 0.436466 -0.681223 1 0 0 
0.950975 0.151268 -0.269751 0.809017 -0.309017 0.500001 0.950975 -0.151268 0.269751 
0.587735 -0.436466 0.681223 -1 0 0 -0.809017 0.309017 -0.500001 
-0.950974 0.151268 -0.269751 -0.809017 -0.309017 0.500001 -0.950974 -0.151268 0.269751 
-0.309017 -0.500001 0.809017 -0.587735 -0.436466 0.681223 0.309017 -0.500001 0.809017 
0 -0.514509 0.857485 0.809017 0.309017 -0.500001 0.309017 0.500001 -0.809017 
0.587735 0.436466 -0.681223 -0.309017 0.500001 -0.809017 0 0.514509 -0.857485 
-0.587735 0.436466 -0.681223 1 0 0 0.950974 0.151268 -0.269751 
0.809017 -0.309017 0.500001 0.950974 -0.151268 0.269751 0.587735 -0.436466 0.681223 
-1 0 0 -0.809017 0.309017 -0.500001 -0.809017 -0.309017 0.500001 
-0.309017 -0.500001 0.809017 0.309017 -0.500001 0.809017 0.809017 0.309017 -0.500001 
0.309017 0.500001 -0.809017 -0.309017 0.500001 -0.809017 1 0 0 
0.809017 -0.309017 0.500001 -1 0 0 -0.809017 0.309017 -0.500001 
-0.809017 -0.309017 0.500001 -0.309017 -0.500001 0.809017 0.309017 -0.500001 0.809017 
0.809017 0.309017 -0.500001 0.309017 0.500001 -0.809017 -0.309017 0.500001 -0.809017 
1 0 0 0.809017 -0.309017 0.500001 
FIELD FieldData 1
vtkOriginalPointIds 1 62 vtkIdType
2 5 51 52 55 58 60 61 64 
66 68 69 70 72 74 78 79 80 
84 85 86 89 51 52 55 58 60 
61 64 66 68 69 70 72 74 78 
79 80 84 85 86 89 0 1 3 
5 7 9 10 12 15 17 0 1 
3 5 7 9 10 12 15 17 
