# vtk DataFile Version 3.0
vtk output
ASCII
DATASET POLYDATA
POINTS 60 float
6.50464 147.745 105.537 23.2349 173.588 66.9863 7.4572 148.42 68.8451 
16.3241 144.723 138.189 32.3976 167.021 141.422 59.9679 210.936 103.223 
100.319 218.883 99.8537 90.2682 211.693 65.5425 98.9809 204.908 135.61 
57.028 194.527 133.682 50.2805 203.248 75.6188 132.021 212.085 58.1597 
137.98 219.245 96.5668 140.52 206.225 133.588 173.474 195.705 59.4947 
179.437 199.44 90.5237 178.113 190.569 125.653 202.793 167.48 86.9075 
187.988 147.835 34.4859 192.606 140.43 147.739 214.946 129.806 82.854 
208.354 127.872 59.8486 213.381 123.827 112.517 210.973 91.3064 80.3023 
200.643 91.506 51.1018 205.234 90.3764 117.635 175.819 73.9598 156.316 
170.876 85.3292 19.3605 102.434 126.622 0.268164 74.6831 162.609 15.5677 
110.701 159.621 6.84252 72.4101 128.882 10.6857 132.097 118.504 2.09444 
144.733 98.3855 3.91554 57.3304 121.979 15.1626 82.7477 185.158 26.473 
122.203 192.432 26.0829 144.835 151.189 9.50135 162.845 177.548 30.2705 
140.18 181.317 164.199 97.4555 181.129 163.02 129.645 152.706 175.914 
172.558 167.427 154.698 163.18 140.605 170.164 148.044 108.46 177.879 
120.577 120.831 181.674 92.7875 153.767 173.568 90.3226 122.285 178.58 
72.0461 116.585 175.99 160.872 84.4108 169.729 45.1329 184.624 50.2436 
45.9755 134.414 24.9056 25.7356 143.092 38.4161 56.7125 175.167 154.494 
62.8386 128.89 170.812 29.5376 141.176 155.17 156.417 111.642 7.45531 
184.34 103.093 24.7996 169.768 100.474 167.107 191.377 93.232 146.468 

POLYGONS 106 424
3 0 1 2 
3 0 3 4 
3 0 5 1 
3 0 4 5 
3 5 6 7 
3 5 8 6 
3 5 9 8 
3 5 7 10 
3 5 10 1 
3 5 4 9 
3 6 11 7 
3 6 12 11 
3 6 13 12 
3 6 8 13 
3 12 14 11 
3 12 15 14 
3 12 13 16 
3 12 16 15 
3 15 17 14 
3 15 16 17 
3 17 18 14 
3 17 16 19 
3 17 20 21 
3 17 22 20 
3 17 21 18 
3 17 19 22 
3 20 23 21 
3 20 22 23 
3 23 24 21 
3 23 25 26 
3 23 27 24 
3 23 22 25 
3 28 29 30 
3 28 31 29 
3 28 30 32 
3 28 33 34 
3 28 34 31 
3 28 32 33 
3 30 35 36 
3 30 36 37 
3 30 37 32 
3 30 29 35 
3 36 35 7 
3 36 11 14 
3 36 14 38 
3 36 38 37 
3 36 7 11 
3 13 39 16 
3 13 8 39 
3 39 8 40 
3 39 40 41 
3 39 42 16 
3 39 43 42 
3 39 41 43 
3 41 44 43 
3 41 45 44 
3 41 40 46 
3 41 46 45 
3 45 46 47 
3 45 47 48 
3 45 48 49 
3 45 49 44 
3 7 35 10 
3 35 50 10 
3 35 29 50 
3 29 31 34 
3 29 34 51 
3 29 51 52 
3 29 52 50 
3 34 52 51 
3 10 50 1 
3 50 52 1 
3 1 52 2 
3 8 9 40 
3 40 9 53 
3 40 53 46 
3 46 54 48 
3 46 48 47 
3 46 53 54 
3 48 54 55 
3 9 4 53 
3 53 4 55 
3 53 55 54 
3 4 3 55 
3 14 18 38 
3 38 18 37 
3 37 18 56 
3 37 56 32 
3 32 56 33 
3 18 57 56 
3 18 21 57 
3 56 57 27 
3 56 27 33 
3 21 24 57 
3 57 24 27 
3 16 42 19 
3 42 43 19 
3 43 58 19 
3 43 44 58 
3 44 49 58 
3 19 59 22 
3 19 58 59 
3 58 49 26 
3 58 26 59 
3 22 59 25 
3 59 26 25 

CELL_DATA 106
FIELD FieldData 1
vtkOriginalCellIds 1 106 vtkIdType
0 2 3 4 7 8 9 10 11 
12 13 14 15 16 17 18 19 20 
21 22 23 24 25 26 27 28 29 
30 31 32 33 35 36 37 38 39 
40 41 42 43 44 45 46 47 48 
49 50 51 52 53 54 55 56 57 
58 59 60 61 62 63 64 65 66 
67 68 69 70 71 72 74 78 79 
80 81 82 83 84 85 86 88 90 
91 92 93 94 95 96 97 98 99 
100 101 102 103 104 105 106 107 108 
109 110 111 112 113 114 115 
POINT_DATA 60
FIELD FieldData 1
vtkOriginalPointIds 1 60 vtkIdType
0 1 2 4 5 6 8 9 10 
11 12 13 14 15 16 17 18 19 
20 21 22 23 24 25 26 27 28 
29 30 31 32 33 34 35 3 36 
37 38 39 40 41 42 43 44 45 
46 47 48 7 49 50 51 52 53 
54 55 56 57 58 59 
